<?xml version="1.0" encoding="UTF-8"?>

<!-- generated on 2024-02-20 01:43:42 by Eclipse SUMO libsumo Version 1.19.0
<configuration xmlns:xsi="http://www.w3.org/2001/XMLSchema-instance" xsi:noNamespaceSchemaLocation="http://sumo.dlr.de/xsd/libsumoConfiguration.xsd">

    <input>
        <net-file value="D:\Dev\TIROCINIO\SantoGraal\simulation_app\app\simulations_data\simulatrix/network.net.xml"/>
        <route-files value="D:\Dev\TIROCINIO\SantoGraal\simulation_app\app\simulations_data\simulatrix/gtfs_pt_vehicles.add.xml"/>
        <additional-files value="D:\Dev\TIROCINIO\SantoGraal\simulation_app\app\simulations_data\simulatrix/gtfs_pt_stops.add.xml,D:\Dev\TIROCINIO\SantoGraal\simulation_app\app\simulations_data\simulatrix/ [NO]vTypes.xml,D:\Dev\TIROCINIO\SantoGraal\simulation_app\app\simulations_data\simulatrix/ additional.xml"/>
    </input>

    <output>
        <tripinfo-output value="./tripinfo.xml"/>
    </output>

    <time>
        <begin value="0:05:21:00"/>
        <end value="0:21:00:00"/>
        <step-length value="1"/>
    </time>

    <processing>
        <ignore-route-errors value="true"/>
    </processing>

    <report>
        <no-warnings value="true"/>
    </report>

</configuration>
-->

<tripinfos xmlns:xsi="http://www.w3.org/2001/XMLSchema-instance" xsi:noNamespaceSchemaLocation="http://sumo.dlr.de/xsd/tripinfo_file.xsd">
    <tripinfo id="1839-fe43dd24b9573b0943e8.0" depart="19260.00" departLane="-414416880_0" departPos="12.10" departSpeed="0.00" departDelay="0.00" arrival="20278.00" arrivalLane="-283933266#0_0" arrivalPos="796.35" arrivalSpeed="0.73" duration="1018.00" routeLength="2522.90" waitingTime="1.00" waitingCount="1" stopTime="750.00" timeLoss="177.08" rerouteNo="0" devices="tripinfo_1839-fe43dd24b9573b0943e8.0" vType="bus" speedFactor="1.00" vaporized=""/>
    <tripinfo id="1839-1a2bb0b8648cba460b6d.0" depart="20040.00" departLane="969474155_0" departPos="12.10" departSpeed="0.00" departDelay="0.00" arrival="20970.00" arrivalLane="504078070#13_0" arrivalPos="35.55" arrivalSpeed="5.14" duration="930.00" routeLength="2444.98" waitingTime="303.00" waitingCount="3" stopTime="312.00" timeLoss="423.99" rerouteNo="0" devices="tripinfo_1839-1a2bb0b8648cba460b6d.0" vType="bus" speedFactor="1.00" vaporized=""/>
    <tripinfo id="1839-34f8e57247b4c8b660ec.0" depart="19800.00" departLane="495282652_0" departPos="12.10" departSpeed="0.00" departDelay="0.00" arrival="21069.00" arrivalLane="414416874#8_0" arrivalPos="469.73" arrivalSpeed="0.66" duration="1269.00" routeLength="4934.49" waitingTime="331.00" waitingCount="5" stopTime="294.00" timeLoss="566.47" rerouteNo="0" devices="tripinfo_1839-34f8e57247b4c8b660ec.0" vType="bus" speedFactor="1.00" vaporized=""/>
    <tripinfo id="1839-3c3e73e50b4e270fd973.0" depart="20940.00" departLane="504044357#1_0" departPos="12.10" departSpeed="0.00" departDelay="0.00" arrival="21432.00" arrivalLane="414416874#8_0" arrivalPos="469.73" arrivalSpeed="0.98" duration="492.00" routeLength="2990.41" waitingTime="58.00" waitingCount="3" stopTime="80.00" timeLoss="213.09" rerouteNo="0" devices="tripinfo_1839-3c3e73e50b4e270fd973.0" vType="bus" speedFactor="1.00" vaporized=""/>
    <tripinfo id="1839-dd67318b2fc45c0a3bcd.0" depart="20640.00" departLane="283933266#0_0" departPos="12.10" departSpeed="0.00" departDelay="0.00" arrival="21435.00" arrivalLane="414416880_0" arrivalPos="391.56" arrivalSpeed="14.75" duration="795.00" routeLength="2517.25" waitingTime="50.00" waitingCount="5" stopTime="448.00" timeLoss="256.23" rerouteNo="0" devices="tripinfo_1839-dd67318b2fc45c0a3bcd.0" vType="bus" speedFactor="1.00" vaporized=""/>
    <tripinfo id="1839-597db9228feb85b7ba71.0" depart="20820.00" departLane="-414416880_0" departPos="12.10" departSpeed="0.00" departDelay="0.00" arrival="21695.00" arrivalLane="-283933266#0_0" arrivalPos="796.35" arrivalSpeed="0.78" duration="875.00" routeLength="2522.90" waitingTime="6.00" waitingCount="6" stopTime="594.00" timeLoss="190.08" rerouteNo="0" devices="tripinfo_1839-597db9228feb85b7ba71.0" vType="bus" speedFactor="1.00" vaporized=""/>
    <tripinfo id="1839-9f3c5c628094591a05a7.0" depart="22310.00" departLane="503831371#0_0" departPos="12.10" departSpeed="0.00" departDelay="0.00" arrival="22587.00" arrivalLane="503831371#0_0" arrivalPos="26.07" arrivalSpeed="0.75" duration="277.00" routeLength="13.97" waitingTime="0.00" waitingCount="0" stopTime="270.00" timeLoss="5.95" rerouteNo="0" devices="tripinfo_1839-9f3c5c628094591a05a7.0" vType="bus" speedFactor="1.00" vaporized=""/>
    <tripinfo id="1839-824ac29ab0d2023f7e17.0" depart="21300.00" departLane="495282652_0" departPos="12.10" departSpeed="0.00" departDelay="0.00" arrival="22773.00" arrivalLane="414416874#8_0" arrivalPos="469.73" arrivalSpeed="0.87" duration="1473.00" routeLength="4934.49" waitingTime="536.00" waitingCount="9" stopTime="294.00" timeLoss="770.97" rerouteNo="0" devices="tripinfo_1839-824ac29ab0d2023f7e17.0" vType="bus" speedFactor="1.00" vaporized=""/>
    <tripinfo id="1839-675149b59b2dc72ef250.0" depart="21840.00" departLane="969474155_0" departPos="12.10" departSpeed="0.00" departDelay="0.00" arrival="22777.00" arrivalLane="504078070#13_0" arrivalPos="35.55" arrivalSpeed="5.52" duration="937.00" routeLength="2444.98" waitingTime="303.00" waitingCount="3" stopTime="316.00" timeLoss="426.47" rerouteNo="0" devices="tripinfo_1839-675149b59b2dc72ef250.0" vType="bus" speedFactor="1.00" vaporized=""/>
    <tripinfo id="1839-6d3a21084645a554d677.0" depart="22620.00" departLane="503831371#0_0" departPos="12.10" departSpeed="0.00" departDelay="0.00" arrival="22872.00" arrivalLane="414416874#8_0" arrivalPos="469.73" arrivalSpeed="0.63" duration="252.00" routeLength="1443.74" waitingTime="33.00" waitingCount="2" stopTime="61.00" timeLoss="136.90" rerouteNo="0" devices="tripinfo_1839-6d3a21084645a554d677.0" vType="bus" speedFactor="1.00" vaporized=""/>
    <tripinfo id="1839-da409682253400add876.0" depart="21960.00" departLane="283933266#0_0" departPos="12.10" departSpeed="0.00" departDelay="0.00" arrival="22936.00" arrivalLane="414416880_0" arrivalPos="391.56" arrivalSpeed="14.96" duration="976.00" routeLength="2517.25" waitingTime="2.00" waitingCount="2" stopTime="686.00" timeLoss="199.07" rerouteNo="0" devices="tripinfo_1839-da409682253400add876.0" vType="bus" speedFactor="1.00" vaporized=""/>
    <tripinfo id="1839-c7019e13b4eea7b5d900.0" depart="22446.00" departLane="-911635754#0_0" departPos="12.10" departSpeed="0.00" departDelay="0.00" arrival="23174.00" arrivalLane="248677639_0" arrivalPos="53.37" arrivalSpeed="0.99" duration="728.00" routeLength="350.51" waitingTime="0.00" waitingCount="0" stopTime="663.00" timeLoss="10.63" rerouteNo="0" devices="tripinfo_1839-c7019e13b4eea7b5d900.0" vType="bus" speedFactor="1.00" vaporized=""/>
    <tripinfo id="1839-ccef231bd05ccf1f1afc.0" depart="22260.00" departLane="-414416880_0" departPos="12.10" departSpeed="0.00" departDelay="0.00" arrival="23217.00" arrivalLane="-283933266#0_0" arrivalPos="796.35" arrivalSpeed="1.12" duration="957.00" routeLength="2522.90" waitingTime="2.00" waitingCount="2" stopTime="689.00" timeLoss="177.06" rerouteNo="0" devices="tripinfo_1839-ccef231bd05ccf1f1afc.0" vType="bus" speedFactor="1.00" vaporized=""/>
    <tripinfo id="1839-c3ddc65d327a5bb2bee6.0" depart="22740.00" departLane="504044357#1_0" departPos="12.10" departSpeed="0.00" departDelay="0.00" arrival="23229.00" arrivalLane="414416874#8_0" arrivalPos="469.73" arrivalSpeed="0.95" duration="489.00" routeLength="2990.41" waitingTime="57.00" waitingCount="3" stopTime="80.00" timeLoss="210.59" rerouteNo="0" devices="tripinfo_1839-c3ddc65d327a5bb2bee6.0" vType="bus" speedFactor="1.00" vaporized=""/>
    <tripinfo id="1839-df4dacec5716eb17507f.0" depart="23400.00" departLane="8041195#0_0" departPos="12.10" departSpeed="0.00" departDelay="0.00" arrival="23531.00" arrivalLane="911635754#0_0" arrivalPos="27.69" arrivalSpeed="1.18" duration="131.00" routeLength="659.25" waitingTime="0.00" waitingCount="0" stopTime="10.00" timeLoss="10.69" rerouteNo="0" devices="tripinfo_1839-df4dacec5716eb17507f.0" vType="bus" speedFactor="1.00" vaporized=""/>
    <tripinfo id="1839-7fbff43280ac74602200.0" depart="23489.00" departLane="-495282652_0" departPos="12.10" departSpeed="0.00" departDelay="0.00" arrival="23715.00" arrivalLane="-495282652_0" arrivalPos="1118.82" arrivalSpeed="0.70" duration="226.00" routeLength="1106.72" waitingTime="0.00" waitingCount="0" stopTime="10.00" timeLoss="16.85" rerouteNo="0" devices="tripinfo_1839-7fbff43280ac74602200.0" vType="bus" speedFactor="1.00" vaporized=""/>
    <tripinfo id="1839-57ea5a8ce2f248d62fac.0" depart="22440.00" departLane="969474155_0" departPos="12.10" departSpeed="0.00" departDelay="0.00" arrival="23826.00" arrivalLane="504078070#13_0" arrivalPos="35.55" arrivalSpeed="5.50" duration="1386.00" routeLength="2444.98" waitingTime="304.00" waitingCount="4" stopTime="764.00" timeLoss="427.98" rerouteNo="0" devices="tripinfo_1839-57ea5a8ce2f248d62fac.0" vType="bus" speedFactor="1.00" vaporized=""/>
    <tripinfo id="1839-b44377cbe580ce36f73b.0" depart="22800.00" departLane="495282652_0" departPos="12.10" departSpeed="0.00" departDelay="0.00" arrival="24129.00" arrivalLane="414416874#8_0" arrivalPos="469.73" arrivalSpeed="0.64" duration="1329.00" routeLength="4934.49" waitingTime="389.00" waitingCount="7" stopTime="294.00" timeLoss="627.16" rerouteNo="0" devices="tripinfo_1839-b44377cbe580ce36f73b.0" vType="bus" speedFactor="1.00" vaporized=""/>
    <tripinfo id="1839-78cda6ae74823d69dc1a.0" depart="23580.00" departLane="283933266#0_0" departPos="12.10" departSpeed="0.00" departDelay="0.00" arrival="24316.00" arrivalLane="414416880_0" arrivalPos="391.56" arrivalSpeed="15.00" duration="736.00" routeLength="2517.25" waitingTime="3.00" waitingCount="3" stopTime="439.00" timeLoss="206.13" rerouteNo="0" devices="tripinfo_1839-78cda6ae74823d69dc1a.0" vType="bus" speedFactor="1.00" vaporized=""/>
    <tripinfo id="1839-cdb1ecbce5b679738f91.0" depart="23100.00" departLane="969474155_0" departPos="12.10" departSpeed="0.00" departDelay="0.00" arrival="24394.00" arrivalLane="504078070#13_0" arrivalPos="35.55" arrivalSpeed="5.43" duration="1294.00" routeLength="2444.98" waitingTime="487.00" waitingCount="5" stopTime="487.00" timeLoss="612.60" rerouteNo="0" devices="tripinfo_1839-cdb1ecbce5b679738f91.0" vType="bus" speedFactor="1.00" vaporized=""/>
    <tripinfo id="1839-4e887282e039261a1ab3.0" depart="22924.00" departLane="969474155_0" departPos="12.10" departSpeed="0.00" departDelay="434.00" arrival="24412.00" arrivalLane="-495282652_0" arrivalPos="1118.82" arrivalSpeed="5.09" duration="1488.00" routeLength="4381.24" waitingTime="701.00" waitingCount="11" stopTime="150.00" timeLoss="916.11" rerouteNo="0" devices="tripinfo_1839-4e887282e039261a1ab3.0" vType="bus" speedFactor="1.00" vaporized=""/>
    <tripinfo id="1839-b2b63a24236fb7a5f2de.0" depart="24193.00" departLane="503831371#0_0" departPos="12.10" departSpeed="0.00" departDelay="0.00" arrival="24447.00" arrivalLane="503831371#0_0" arrivalPos="26.07" arrivalSpeed="0.95" duration="254.00" routeLength="13.97" waitingTime="0.00" waitingCount="0" stopTime="246.00" timeLoss="6.93" rerouteNo="0" devices="tripinfo_1839-b2b63a24236fb7a5f2de.0" vType="bus" speedFactor="1.00" vaporized=""/>
    <tripinfo id="1839-e18329ef6786c65dd578.0" depart="23820.00" departLane="504044357#1_0" departPos="12.10" departSpeed="0.00" departDelay="0.00" arrival="24672.00" arrivalLane="414416874#8_0" arrivalPos="469.73" arrivalSpeed="0.89" duration="852.00" routeLength="2990.41" waitingTime="148.00" waitingCount="6" stopTime="342.00" timeLoss="311.64" rerouteNo="0" devices="tripinfo_1839-e18329ef6786c65dd578.0" vType="bus" speedFactor="1.00" vaporized=""/>
    <tripinfo id="1839-1cc23d3d801193251d9b.0" depart="23946.00" departLane="-911635754#0_0" departPos="12.10" departSpeed="0.00" departDelay="0.00" arrival="24674.00" arrivalLane="248677639_0" arrivalPos="53.37" arrivalSpeed="1.19" duration="728.00" routeLength="350.51" waitingTime="0.00" waitingCount="0" stopTime="665.00" timeLoss="8.51" rerouteNo="0" devices="tripinfo_1839-1cc23d3d801193251d9b.0" vType="bus" speedFactor="1.00" vaporized=""/>
    <tripinfo id="1839-fbc4540755d968249cd8.0" depart="23820.00" departLane="-414416880_0" departPos="12.10" departSpeed="0.00" departDelay="0.00" arrival="24816.00" arrivalLane="-283933266#0_0" arrivalPos="796.35" arrivalSpeed="1.04" duration="996.00" routeLength="2522.90" waitingTime="2.00" waitingCount="2" stopTime="728.00" timeLoss="177.07" rerouteNo="0" devices="tripinfo_1839-fbc4540755d968249cd8.0" vType="bus" speedFactor="1.00" vaporized=""/>
    <tripinfo id="1839-1c5fe20e04b34a944c0b.0" depart="24480.00" departLane="503831371#0_0" departPos="12.10" departSpeed="0.00" departDelay="0.00" arrival="24900.00" arrivalLane="414416874#8_0" arrivalPos="469.73" arrivalSpeed="0.84" duration="420.00" routeLength="1443.74" waitingTime="14.00" waitingCount="2" stopTime="255.00" timeLoss="110.99" rerouteNo="0" devices="tripinfo_1839-1c5fe20e04b34a944c0b.0" vType="bus" speedFactor="1.00" vaporized=""/>
    <tripinfo id="1839-eaab98b75aadce6ddc4d.0" depart="24180.00" departLane="504044357#1_0" departPos="12.10" departSpeed="0.00" departDelay="0.00" arrival="24917.00" arrivalLane="414416874#8_0" arrivalPos="469.73" arrivalSpeed="0.80" duration="737.00" routeLength="2990.41" waitingTime="119.00" waitingCount="4" stopTime="274.00" timeLoss="265.55" rerouteNo="0" devices="tripinfo_1839-eaab98b75aadce6ddc4d.0" vType="bus" speedFactor="1.00" vaporized=""/>
    <tripinfo id="1839-72702d98d9a514882968.0" depart="24900.00" departLane="8041195#0_0" departPos="12.10" departSpeed="0.00" departDelay="0.00" arrival="25042.00" arrivalLane="911635754#0_0" arrivalPos="27.69" arrivalSpeed="0.99" duration="142.00" routeLength="659.25" waitingTime="5.00" waitingCount="1" stopTime="10.00" timeLoss="21.69" rerouteNo="0" devices="tripinfo_1839-72702d98d9a514882968.0" vType="bus" speedFactor="1.00" vaporized=""/>
    <tripinfo id="1839-54cabb7af6dc9b79905f.0" depart="23640.00" departLane="969474155_0" departPos="12.10" departSpeed="0.00" departDelay="0.00" arrival="25045.00" arrivalLane="504078070#13_0" arrivalPos="35.55" arrivalSpeed="5.19" duration="1405.00" routeLength="2444.98" waitingTime="853.00" waitingCount="7" stopTime="229.00" timeLoss="981.79" rerouteNo="0" devices="tripinfo_1839-54cabb7af6dc9b79905f.0" vType="bus" speedFactor="1.00" vaporized=""/>
    <tripinfo id="1839-1ef83f5939c41d8c486b.0" depart="24540.00" departLane="504044357#1_0" departPos="12.10" departSpeed="0.00" departDelay="0.00" arrival="25080.00" arrivalLane="414416874#8_0" arrivalPos="469.73" arrivalSpeed="1.10" duration="540.00" routeLength="2990.41" waitingTime="22.00" waitingCount="4" stopTime="189.00" timeLoss="151.89" rerouteNo="0" devices="tripinfo_1839-1ef83f5939c41d8c486b.0" vType="bus" speedFactor="1.00" vaporized=""/>
    <tripinfo id="1839-e4f384f032fcaac86ed3.0" depart="23765.00" departLane="969474155_0" departPos="12.10" departSpeed="0.00" departDelay="75.00" arrival="25529.00" arrivalLane="-495282652_0" arrivalPos="1118.82" arrivalSpeed="5.06" duration="1764.00" routeLength="4381.24" waitingTime="971.00" waitingCount="8" stopTime="157.00" timeLoss="1185.55" rerouteNo="0" devices="tripinfo_1839-e4f384f032fcaac86ed3.0" vType="bus" speedFactor="1.00" vaporized=""/>
    <tripinfo id="1839-e15d4cb2a1490d0e2374.0" depart="24840.00" departLane="969474155_0" departPos="12.10" departSpeed="0.00" departDelay="0.00" arrival="25698.00" arrivalLane="504078070#13_0" arrivalPos="35.55" arrivalSpeed="5.06" duration="858.00" routeLength="2444.98" waitingTime="312.00" waitingCount="6" stopTime="227.00" timeLoss="436.72" rerouteNo="0" devices="tripinfo_1839-e15d4cb2a1490d0e2374.0" vType="bus" speedFactor="1.00" vaporized=""/>
    <tripinfo id="1839-f7708d5619a3fbca5850.0" depart="24300.00" departLane="495282652_0" departPos="12.10" departSpeed="0.00" departDelay="0.00" arrival="25752.00" arrivalLane="414416874#8_0" arrivalPos="469.73" arrivalSpeed="0.99" duration="1452.00" routeLength="4934.49" waitingTime="357.00" waitingCount="4" stopTime="438.00" timeLoss="606.76" rerouteNo="0" devices="tripinfo_1839-f7708d5619a3fbca5850.0" vType="bus" speedFactor="1.00" vaporized=""/>
    <tripinfo id="1839-5cb83db907c29191056b.0" depart="24480.00" departLane="206687822#0_0" departPos="12.10" departSpeed="0.00" departDelay="0.00" arrival="25863.00" arrivalLane="504044357#1_0" arrivalPos="74.73" arrivalSpeed="5.49" duration="1383.00" routeLength="2682.95" waitingTime="979.00" waitingCount="4" stopTime="60.00" timeLoss="1046.96" rerouteNo="0" devices="tripinfo_1839-5cb83db907c29191056b.0" vType="bus" speedFactor="1.00" vaporized=""/>
    <tripinfo id="1839-3cc0080de8caa640f032.0" depart="25440.00" departLane="504044357#1_0" departPos="12.10" departSpeed="0.00" departDelay="0.00" arrival="25980.00" arrivalLane="414416874#8_0" arrivalPos="469.73" arrivalSpeed="1.15" duration="540.00" routeLength="2990.41" waitingTime="21.00" waitingCount="3" stopTime="194.00" timeLoss="148.03" rerouteNo="0" devices="tripinfo_1839-3cc0080de8caa640f032.0" vType="bus" speedFactor="1.00" vaporized=""/>
    <tripinfo id="1839-978305ab8f42eb0b6a75.0" depart="24600.00" departLane="253477956#6_0" departPos="12.10" departSpeed="0.00" departDelay="0.00" arrival="26044.00" arrivalLane="414416880_0" arrivalPos="391.56" arrivalSpeed="14.96" duration="1444.00" routeLength="4541.09" waitingTime="81.00" waitingCount="8" stopTime="797.00" timeLoss="306.35" rerouteNo="0" devices="tripinfo_1839-978305ab8f42eb0b6a75.0" vType="bus" speedFactor="1.00" vaporized=""/>
    <tripinfo id="1839-f18ef5666c72516c64dd.0" depart="25446.00" departLane="-911635754#0_0" departPos="12.10" departSpeed="0.00" departDelay="0.00" arrival="26174.00" arrivalLane="248677639_0" arrivalPos="53.37" arrivalSpeed="0.99" duration="728.00" routeLength="350.51" waitingTime="0.00" waitingCount="0" stopTime="665.00" timeLoss="8.51" rerouteNo="0" devices="tripinfo_1839-f18ef5666c72516c64dd.0" vType="bus" speedFactor="1.00" vaporized=""/>
    <tripinfo id="1839-2a38b3769ba00a06b99e.0" depart="24840.00" departLane="-414416880_0" departPos="12.10" departSpeed="0.00" departDelay="0.00" arrival="26315.00" arrivalLane="-283933266#0_0" arrivalPos="796.35" arrivalSpeed="0.74" duration="1475.00" routeLength="2522.90" waitingTime="1.00" waitingCount="1" stopTime="1206.00" timeLoss="178.08" rerouteNo="0" devices="tripinfo_1839-2a38b3769ba00a06b99e.0" vType="bus" speedFactor="1.00" vaporized=""/>
    <tripinfo id="1839-53ae2cbe4e1bb93d6273.0" depart="25190.00" departLane="969474155_0" departPos="12.10" departSpeed="0.00" departDelay="0.00" arrival="26469.00" arrivalLane="-495282652_0" arrivalPos="1118.82" arrivalSpeed="5.48" duration="1279.00" routeLength="4381.24" waitingTime="343.00" waitingCount="6" stopTime="318.00" timeLoss="539.32" rerouteNo="0" devices="tripinfo_1839-53ae2cbe4e1bb93d6273.0" vType="bus" speedFactor="1.00" vaporized=""/>
    <tripinfo id="1839-0eeaf3a0a026aa566611.0" depart="25140.00" departLane="283933266#0_0" departPos="12.10" departSpeed="0.00" departDelay="0.00" arrival="26475.00" arrivalLane="414416880_0" arrivalPos="391.56" arrivalSpeed="14.20" duration="1335.00" routeLength="2517.25" waitingTime="26.00" waitingCount="3" stopTime="1011.00" timeLoss="233.31" rerouteNo="0" devices="tripinfo_1839-0eeaf3a0a026aa566611.0" vType="bus" speedFactor="1.00" vaporized=""/>
    <tripinfo id="1839-f20f7834f2322a532a37.0" depart="26400.00" departLane="8041195#0_0" departPos="12.10" departSpeed="0.00" departDelay="0.00" arrival="26533.00" arrivalLane="911635754#0_0" arrivalPos="27.69" arrivalSpeed="0.88" duration="133.00" routeLength="659.25" waitingTime="0.00" waitingCount="0" stopTime="10.00" timeLoss="12.63" rerouteNo="0" devices="tripinfo_1839-f20f7834f2322a532a37.0" vType="bus" speedFactor="1.00" vaporized=""/>
    <tripinfo id="1839-81b1eb68a5f3686fb184.0" depart="26233.00" departLane="503831371#0_0" departPos="12.10" departSpeed="0.00" departDelay="0.00" arrival="26539.00" arrivalLane="503831371#0_0" arrivalPos="26.07" arrivalSpeed="0.80" duration="306.00" routeLength="13.97" waitingTime="0.00" waitingCount="0" stopTime="299.00" timeLoss="5.94" rerouteNo="0" devices="tripinfo_1839-81b1eb68a5f3686fb184.0" vType="bus" speedFactor="1.00" vaporized=""/>
    <tripinfo id="1839-f80ce55341d5d3c6df7a.0" depart="25740.00" departLane="969474155_0" departPos="12.10" departSpeed="0.00" departDelay="0.00" arrival="26594.00" arrivalLane="504078070#13_0" arrivalPos="35.55" arrivalSpeed="5.52" duration="854.00" routeLength="2444.98" waitingTime="310.00" waitingCount="4" stopTime="228.00" timeLoss="431.54" rerouteNo="0" devices="tripinfo_1839-f80ce55341d5d3c6df7a.0" vType="bus" speedFactor="1.00" vaporized=""/>
    <tripinfo id="1839-fd483e8cf8ad3375d321.0" depart="25200.00" departLane="495282652_0" departPos="12.10" departSpeed="0.00" departDelay="0.00" arrival="26737.00" arrivalLane="414416874#8_0" arrivalPos="469.73" arrivalSpeed="0.81" duration="1537.00" routeLength="4934.49" waitingTime="446.00" waitingCount="5" stopTime="439.00" timeLoss="689.54" rerouteNo="0" devices="tripinfo_1839-fd483e8cf8ad3375d321.0" vType="bus" speedFactor="1.00" vaporized=""/>
    <tripinfo id="1839-7c1e510c081779f1ad42.0" depart="26580.00" departLane="503831371#0_0" departPos="12.10" departSpeed="0.00" departDelay="0.00" arrival="26880.00" arrivalLane="414416874#8_0" arrivalPos="469.73" arrivalSpeed="0.69" duration="300.00" routeLength="1443.74" waitingTime="16.00" waitingCount="3" stopTime="126.00" timeLoss="119.89" rerouteNo="0" devices="tripinfo_1839-7c1e510c081779f1ad42.0" vType="bus" speedFactor="1.00" vaporized=""/>
    <tripinfo id="1839-e83968435019e56ba427.0" depart="26669.00" departLane="-495282652_0" departPos="12.10" departSpeed="0.00" departDelay="0.00" arrival="26893.00" arrivalLane="-495282652_0" arrivalPos="1118.82" arrivalSpeed="0.82" duration="224.00" routeLength="1106.72" waitingTime="0.00" waitingCount="0" stopTime="10.00" timeLoss="14.82" rerouteNo="0" devices="tripinfo_1839-e83968435019e56ba427.0" vType="bus" speedFactor="1.00" vaporized=""/>
    <tripinfo id="1839-44be6dc00abbbffe128e.0" depart="26340.00" departLane="504044357#1_0" departPos="12.10" departSpeed="0.00" departDelay="0.00" arrival="26898.00" arrivalLane="414416874#8_0" arrivalPos="469.73" arrivalSpeed="1.15" duration="558.00" routeLength="2990.41" waitingTime="68.00" waitingCount="5" stopTime="147.00" timeLoss="213.03" rerouteNo="0" devices="tripinfo_1839-44be6dc00abbbffe128e.0" vType="bus" speedFactor="1.00" vaporized=""/>
    <tripinfo id="1839-66394388005dcae09594.0" depart="26346.00" departLane="-911635754#0_0" departPos="12.10" departSpeed="0.00" departDelay="0.00" arrival="27074.00" arrivalLane="248677639_0" arrivalPos="53.37" arrivalSpeed="0.83" duration="728.00" routeLength="350.51" waitingTime="0.00" waitingCount="0" stopTime="664.00" timeLoss="9.61" rerouteNo="0" devices="tripinfo_1839-66394388005dcae09594.0" vType="bus" speedFactor="1.00" vaporized=""/>
    <tripinfo id="1839-3ba9a5950598f4b40281.0" depart="25740.00" departLane="-414416880_0" departPos="12.10" departSpeed="0.00" departDelay="0.00" arrival="27106.00" arrivalLane="-283933266#0_0" arrivalPos="796.35" arrivalSpeed="1.00" duration="1366.00" routeLength="2522.90" waitingTime="1.00" waitingCount="1" stopTime="1099.00" timeLoss="176.07" rerouteNo="0" devices="tripinfo_1839-3ba9a5950598f4b40281.0" vType="bus" speedFactor="1.00" vaporized=""/>
    <tripinfo id="1839-1ec5c209dc052b4600f7.0" depart="27300.00" departLane="8041195#0_0" departPos="12.10" departSpeed="0.00" departDelay="0.00" arrival="27434.00" arrivalLane="911635754#0_0" arrivalPos="27.69" arrivalSpeed="1.10" duration="134.00" routeLength="659.25" waitingTime="0.00" waitingCount="0" stopTime="10.00" timeLoss="13.75" rerouteNo="0" devices="tripinfo_1839-1ec5c209dc052b4600f7.0" vType="bus" speedFactor="1.00" vaporized=""/>
    <tripinfo id="1839-03c5dcba5b9f49c20ef3.0" depart="26580.00" departLane="283933266#0_0" departPos="12.10" departSpeed="0.00" departDelay="0.00" arrival="27438.00" arrivalLane="414416880_0" arrivalPos="391.56" arrivalSpeed="14.68" duration="858.00" routeLength="2517.25" waitingTime="36.00" waitingCount="5" stopTime="524.00" timeLoss="243.23" rerouteNo="0" devices="tripinfo_1839-03c5dcba5b9f49c20ef3.0" vType="bus" speedFactor="1.00" vaporized=""/>
    <tripinfo id="1839-d3ca6b59a76a538214a4.0" depart="26100.00" departLane="495282652_0" departPos="12.10" departSpeed="0.00" departDelay="0.00" arrival="27550.00" arrivalLane="414416874#8_0" arrivalPos="469.73" arrivalSpeed="1.16" duration="1450.00" routeLength="4934.49" waitingTime="358.00" waitingCount="5" stopTime="440.00" timeLoss="602.23" rerouteNo="0" devices="tripinfo_1839-d3ca6b59a76a538214a4.0" vType="bus" speedFactor="1.00" vaporized=""/>
    <tripinfo id="1839-eea28efe741a0f7f07ea.0" depart="26400.00" departLane="495282652_0" departPos="12.10" departSpeed="0.00" departDelay="0.00" arrival="27821.00" arrivalLane="414416874#8_0" arrivalPos="469.73" arrivalSpeed="0.63" duration="1421.00" routeLength="4934.49" waitingTime="327.00" waitingCount="6" stopTime="440.00" timeLoss="573.21" rerouteNo="0" devices="tripinfo_1839-eea28efe741a0f7f07ea.0" vType="bus" speedFactor="1.00" vaporized=""/>
    <tripinfo id="1839-0ddab06fc4de95bdf798.0" depart="26940.00" departLane="969474155_0" departPos="12.10" departSpeed="0.00" departDelay="0.00" arrival="27846.00" arrivalLane="504078070#13_0" arrivalPos="35.55" arrivalSpeed="4.98" duration="906.00" routeLength="2444.98" waitingTime="303.00" waitingCount="3" stopTime="285.00" timeLoss="427.04" rerouteNo="0" devices="tripinfo_1839-0ddab06fc4de95bdf798.0" vType="bus" speedFactor="1.00" vaporized=""/>
    <tripinfo id="1839-35cfbd1f755a95799c7b.0" depart="27246.00" departLane="-911635754#0_0" departPos="12.10" departSpeed="0.00" departDelay="0.00" arrival="28038.00" arrivalLane="248677639_0" arrivalPos="53.37" arrivalSpeed="0.89" duration="792.00" routeLength="350.51" waitingTime="0.00" waitingCount="0" stopTime="728.00" timeLoss="9.67" rerouteNo="0" devices="tripinfo_1839-35cfbd1f755a95799c7b.0" vType="bus" speedFactor="1.00" vaporized=""/>
    <tripinfo id="1839-ce70c7ce2eb37a6d2486.0" depart="27878.00" departLane="503831371#0_0" departPos="12.10" departSpeed="0.00" departDelay="0.00" arrival="28219.00" arrivalLane="503831371#0_0" arrivalPos="26.07" arrivalSpeed="1.16" duration="341.00" routeLength="13.97" waitingTime="0.00" waitingCount="0" stopTime="333.00" timeLoss="6.92" rerouteNo="0" devices="tripinfo_1839-ce70c7ce2eb37a6d2486.0" vType="bus" speedFactor="1.00" vaporized=""/>
    <tripinfo id="1839-beaede32651e9abce78d.0" depart="27420.00" departLane="283933266#0_0" departPos="12.10" departSpeed="0.00" departDelay="0.00" arrival="28276.00" arrivalLane="414416880_0" arrivalPos="391.56" arrivalSpeed="14.69" duration="856.00" routeLength="2517.25" waitingTime="3.00" waitingCount="3" stopTime="547.00" timeLoss="218.10" rerouteNo="0" devices="tripinfo_1839-beaede32651e9abce78d.0" vType="bus" speedFactor="1.00" vaporized=""/>
    <tripinfo id="1839-62c42ff28db46b2007de.0" depart="28200.00" departLane="8041195#0_0" departPos="12.10" departSpeed="0.00" departDelay="0.00" arrival="28332.00" arrivalLane="911635754#0_0" arrivalPos="27.69" arrivalSpeed="0.86" duration="132.00" routeLength="659.25" waitingTime="0.00" waitingCount="0" stopTime="10.00" timeLoss="11.74" rerouteNo="0" devices="tripinfo_1839-62c42ff28db46b2007de.0" vType="bus" speedFactor="1.00" vaporized=""/>
    <tripinfo id="1839-ccff50de6ec0684f5cb8.0" depart="27000.00" departLane="-414416880_0" departPos="12.10" departSpeed="0.00" departDelay="60.00" arrival="28440.00" arrivalLane="-283933266#0_0" arrivalPos="796.35" arrivalSpeed="0.84" duration="1440.00" routeLength="2522.90" waitingTime="1.00" waitingCount="1" stopTime="1169.00" timeLoss="180.08" rerouteNo="0" devices="tripinfo_1839-ccff50de6ec0684f5cb8.0" vType="bus" speedFactor="1.00" vaporized=""/>
    <tripinfo id="1839-1809e7514ec76827b341.0" depart="26700.00" departLane="495282652_0" departPos="12.10" departSpeed="0.00" departDelay="0.00" arrival="28451.00" arrivalLane="414416874#8_0" arrivalPos="469.73" arrivalSpeed="0.79" duration="1751.00" routeLength="4934.49" waitingTime="648.00" waitingCount="8" stopTime="438.00" timeLoss="905.23" rerouteNo="0" devices="tripinfo_1839-1809e7514ec76827b341.0" vType="bus" speedFactor="1.00" vaporized=""/>
    <tripinfo id="1839-29fda51414b316c833b0.0" depart="27243.00" departLane="969474155_0" departPos="12.10" departSpeed="0.00" departDelay="0.00" arrival="28461.00" arrivalLane="-495282652_0" arrivalPos="1118.82" arrivalSpeed="5.48" duration="1218.00" routeLength="4381.24" waitingTime="311.00" waitingCount="5" stopTime="281.00" timeLoss="515.21" rerouteNo="0" devices="tripinfo_1839-29fda51414b316c833b0.0" vType="bus" speedFactor="1.00" vaporized=""/>
    <tripinfo id="1839-bbdc35395b150b47b4e1.0" depart="27840.00" departLane="504044357#1_0" departPos="12.10" departSpeed="0.00" departDelay="0.00" arrival="28470.00" arrivalLane="414416874#8_0" arrivalPos="469.73" arrivalSpeed="0.96" duration="630.00" routeLength="2990.41" waitingTime="183.00" waitingCount="7" stopTime="89.00" timeLoss="342.50" rerouteNo="0" devices="tripinfo_1839-bbdc35395b150b47b4e1.0" vType="bus" speedFactor="1.00" vaporized=""/>
    <tripinfo id="1839-41f09ce5f10a4c5e94aa.0" depart="28469.00" departLane="-495282652_0" departPos="12.10" departSpeed="0.00" departDelay="0.00" arrival="28694.00" arrivalLane="-495282652_0" arrivalPos="1118.82" arrivalSpeed="1.12" duration="225.00" routeLength="1106.72" waitingTime="0.00" waitingCount="0" stopTime="10.00" timeLoss="15.77" rerouteNo="0" devices="tripinfo_1839-41f09ce5f10a4c5e94aa.0" vType="bus" speedFactor="1.00" vaporized=""/>